ITEM: TIMESTEP
0
ITEM: NUMBER OF ATOMS
102
ITEM: BOX BOUNDS pp pp pp
-11.6831 13.1281
-11.6831 11.1281
-5.68308 5.12808
ITEM: ATOMS id type mol xs ys zs vx vy vz 
1 1 1 0.389666 0.609428 0.616679 -0.00422982 0.00344803 -0.00332985 
2 1 1 0.337341 0.633279 0.634251 0.00408555 0.000767838 0.00283543 
3 6 1 0.29576 0.596205 0.594393 0.00052673 -0.00215108 0.00276688 
4 1 1 0.389297 0.553333 0.56534 -0.00314611 -0.00421747 -0.00205557 
5 2 1 0.325303 0.535207 0.543007 -0.00106452 -0.00111268 -0.000405061 
6 6 1 0.252928 0.60477 0.599296 0.00312903 0.0029505 -0.000530395 
7 1 1 0.437906 0.518737 0.539223 0.00397911 0.00233883 0.00101112 
8 1 1 0.442261 0.458953 0.512014 0.00403053 -0.00154623 0.00407204 
9 1 1 0.497042 0.440546 0.493345 0.00347964 -0.000502124 -4.27786e-06 
10 1 1 0.534778 0.486761 0.504161 0.00240157 0.00251206 0.000746611 
11 2 1 0.499359 0.545881 0.539618 -0.000778042 -0.00174084 0.0028962 
12 2 1 0.802098 0.447789 0.404915 -0.00229063 -0.00140906 -0.000145586 
13 2 1 0.628926 0.429942 0.426194 0.00140604 -0.00217356 -0.00231385 
14 6 1 0.835248 0.387982 0.362122 0.00300115 -0.00326329 0.00167716 
15 1 1 0.6879 0.508058 0.505711 0.00304162 -0.00122293 0.00301748 
16 1 1 0.633712 0.525799 0.531516 0.00377559 -1.45775e-06 0.00473204 
17 1 1 0.594615 0.484919 0.489747 0.000424759 0.00218594 -0.000455957 
18 1 1 0.691124 0.453581 0.44557 -0.00191141 0.00279166 -0.0023735 
19 1 1 0.743584 0.361098 0.38156 -0.000870372 0.00134636 -0.00418486 
20 1 1 0.797442 0.34249 0.354397 0.00322219 0.00426907 -0.00364759 
21 1 1 0.740238 0.42092 0.411968 -0.000782996 -0.00414097 -0.000438249 
22 3 1 0.722919 0.53253 0.53515 -0.00986854 0.00519325 -0.0112016 
23 6 1 0.878129 0.384442 0.34563 0.000157476 0.00431267 -0.00323609 
24 3 1 0.407805 0.430108 0.50804 -0.0093119 -0.0041254 0.0097865 
25 3 1 0.426163 0.632253 0.642521 0.0117874 0.00317762 0.0121344 
26 3 1 0.708987 0.332301 0.380211 -0.0148644 0.0100373 -0.00747989 
27 4 1 0.329288 0.691988 0.694371 -0.00131463 0.00425688 -0.000479063 
28 4 1 0.307774 0.739021 0.606216 -0.00140585 -0.000752581 0.00458749 
29 5 1 0.30237 0.686879 0.775848 0.0116375 0.0135683 -0.00280166 
30 5 1 0.369148 0.707293 0.728637 -0.009819 -0.0049929 0.0072259 
31 4 1 0.30683 0.798219 0.674039 -0.00253187 0.00128571 -0.00164479 
32 5 1 0.26683 0.727289 0.572589 0.00750136 0.013578 0.00446741 
33 5 1 0.335473 0.742384 0.525579 0.0150257 -0.0102831 -0.00366186 
34 4 1 0.289929 0.848967 0.589931 -0.00406665 -0.00331569 -0.00190438 
35 5 1 0.348113 0.807669 0.709127 -0.00726381 -0.0125534 0.0158325 
36 5 1 0.278897 0.795473 0.75433 -0.011225 -0.00483002 -0.0021099 
37 4 1 0.292504 0.907079 0.661365 0.00140019 0.0013724 -0.000608818 
38 5 1 0.317865 0.851283 0.509581 -0.0103485 -0.00751947 -0.00375814 
39 5 1 0.248295 0.84137 0.555472 -0.00945037 0.00991126 -0.00301707 
40 6 1 0.276698 0.958874 0.580014 -0.00255207 -0.00360933 0.000352738 
41 5 1 0.304427 0.962352 0.499681 -0.00662541 0.0101254 0.00549951 
42 5 1 0.279342 0 0.634694 0.00584454 0.0116361 -0.0119546 
43 5 1 0.234712 0.953597 0.546286 -0.0138919 -0.0026852 -0.00801104 
44 5 1 0.334266 0.914319 0.695635 -0.00445058 0.00913504 -0.000766657 
45 5 1 0.264864 0.905251 0.742229 0.0114358 -0.00657136 0.0112079 
46 4 1 0.514043 0.377875 0.470884 -0.00261551 -0.0027684 -0.00036779 
47 4 1 0.470439 0.331313 0.490701 -0.00314766 -0.00316857 0.00207351 
48 5 1 0.545801 0.368198 0.540552 -0.000887595 -0.0103076 -0.00945744 
49 5 1 0.531273 0.373997 0.376446 0.00276896 0.0132582 -0.00145941 
50 4 1 0.495613 0.270276 0.475382 0.00356084 -0.0012554 -0.000183035 
51 5 1 0.43698 0.337181 0.423531 0.000496557 -0.00242165 -0.0111332 
52 5 1 0.454422 0.335611 0.586458 -0.00594263 -0.00170388 0.00324158 
53 4 1 0.455403 0.221249 0.503507 0.004446 -5.51218e-05 -0.00194533 
54 5 1 0.530311 0.265738 0.540037 -0.010462 -0.0120637 0.00573623 
55 5 1 0.510728 0.265692 0.379015 -0.0113062 0.0024418 0.00657129 
56 4 1 0.482078 0.161257 0.484625 0.00243592 0.00105726 0.00197307 
57 5 1 0.42 0.225298 0.441095 0.00883096 0.0098612 -0.00152204 
58 5 1 0.441558 0.225326 0.601057 -0.0107841 0.00722371 -0.00385524 
59 6 1 0.443095 0.111437 0.513162 0.00391942 0.00289566 0.000141262 
60 5 1 0.407245 0.114129 0.451922 -0.00794971 0.00934561 0.0108778 
61 5 1 0.42994 0.113627 0.611256 -0.00079288 -0.0104206 -0.00477919 
62 5 1 0.463512 0.0687764 0.49727 -0.00173676 0.0145524 -0.00760283 
63 5 1 0.517793 0.157125 0.546228 -0.0109867 0.00357512 0.012838 
64 5 1 0.495703 0.157184 0.387011 0.0105555 -0.00446718 0.00910563 
65 4 1 0.621045 0.57652 0.616852 -0.0017704 0.00351113 -0.000695356 
66 4 1 0.600141 0.635457 0.565559 -0.00137189 0.00029815 0.00330878 
67 5 1 0.654546 0.584035 0.683077 -0.00600734 0.0033703 0.00409934 
68 5 1 0.589709 0.558519 0.679544 0.00953017 -0.00680464 -0.00758247 
69 4 1 0.644296 0.682569 0.547342 -0.00338672 0.00311345 -0.00182535 
70 5 1 0.574916 0.651277 0.643645 -0.010608 8.61092e-05 -0.00422964 
71 5 1 0.572108 0.632624 0.485666 -0.00527476 -0.0142674 -0.0101467 
72 4 1 0.627841 0.741953 0.605605 3.70305e-05 -0.00343515 -0.00219707 
73 5 1 0.656289 0.686255 0.448626 -0.00663234 -0.0126126 -0.0116681 
74 5 1 0.68085 0.669762 0.600129 -0.00447691 0.00371842 -0.0135081 
75 4 1 0.578391 0.77121 0.546816 0.00150462 0.00219459 0.000379476 
76 5 1 0.66247 0.772757 0.600806 0.01511 0.00232747 -0.0108087 
77 5 1 0.619329 0.733977 0.705466 -0.0136716 -0.0141619 0.0150512 
78 6 1 0.562339 0.825938 0.62012 0.000140411 -0.00217612 -0.00215269 
79 5 1 0.596165 0.857784 0.623927 0.00878671 0.0154018 0.00322397 
80 5 1 0.550962 0.813725 0.716289 -0.000211589 -0.0111188 -0.00199206 
81 5 1 0.527091 0.847432 0.576054 -0.0129198 0.0089722 0.00933455 
82 5 1 0.543376 0.74088 0.546821 0.0012305 0.00285223 0.00609801 
83 5 1 0.587906 0.783532 0.449899 0.0133053 0.0112795 -0.0126479 
84 4 1 0.814772 0.280909 0.320851 0.00288633 0.00215508 -0.00360378 
85 4 1 0.771913 0.232678 0.33622 0.00300405 0.000373216 -0.00107923 
86 5 1 0.848984 0.268916 0.382366 0.0119454 0.00604053 -0.0051514 
87 5 1 0.82974 0.281736 0.22398 -0.0143014 0.0138777 -0.0150592 
88 4 1 0.794842 0.173381 0.292918 0.000293961 0.00130006 0.00444518 
89 5 1 0.735515 0.242923 0.280377 -0.00360519 0.0146532 0.00152581 
90 5 1 0.760377 0.230031 0.435544 -0.0101667 -0.0112245 0.00120139 
91 4 1 0.755716 0.122341 0.316384 0.000126206 0.00323909 0.00287025 
92 5 1 0.833164 0.164275 0.342561 -0.00761033 0.000803057 -0.00366729 
93 5 1 0.803328 0.17662 0.192169 -0.0120657 0.00531311 0.00549468 
94 4 1 0.774112 0.0645834 0.255606 -0.00362325 -0.0024163 0.00331163 
95 5 1 0.715749 0.133409 0.276282 0.00334393 1.39005e-05 -0.000436681 
96 5 1 0.750611 0.115991 0.417756 0.000985888 0.0120946 0.0136537 
97 6 1 0.828758 0.0421459 0.300792 -0.0039966 -0.00148965 -0.00357844 
98 5 1 0.83809 0 0.253893 0.0128547 -0.00780337 0.000778298 
99 5 1 0.828028 0.0346355 0.402201 0.00619265 -0.00606899 -0.00477952 
100 5 1 0.861428 0.0734577 0.27746 -0.00730445 -0.0087404 -0.0152598 
101 5 1 0.776043 0.0706393 0.153676 0.00035991 0.0109001 0.0103452 
102 5 1 0.743345 0.0304232 0.275497 0.00597298 -0.0146714 0.0039523 
ITEM: TIMESTEP
200
ITEM: NUMBER OF ATOMS
102
ITEM: BOX BOUNDS pp pp pp
-11.6831 13.1281
-11.6831 11.1281
-5.68308 5.12808
ITEM: ATOMS id type mol xs ys zs vx vy vz 
1 1 1 0.401944 0.61227 0.607151 0.00355887 -0.00704496 0.00225701 
2 1 1 0.349815 0.63831 0.565719 0.000289836 -0.00141303 0.00686295 
3 6 1 0.306535 0.59199 0.627877 0.00111031 0.00479454 -0.00166571 
4 1 1 0.408877 0.547843 0.629077 0.00204735 -0.00749772 0.00314882 
5 2 1 0.328998 0.528429 0.584139 -0.00106887 -0.0016059 0.00547691 
6 6 1 0.258671 0.606025 0.510773 0.00101801 -0.00408409 -0.00182384 
7 1 1 0.428604 0.520662 0.495002 0.00639776 0.00353171 0.000467269 
8 1 1 0.44691 0.45928 0.53485 0.00141045 -0.00373468 -4.05353e-05 
9 1 1 0.500433 0.445804 0.46523 -0.00697627 -0.00389343 -0.000486114 
10 1 1 0.544493 0.475746 0.545148 -0.00338498 -0.00203062 -0.00166832 
11 2 1 0.50728 0.554254 0.523292 -0.000746611 -0.000380888 -0.00197308 
12 2 1 0.792776 0.448449 0.424816 4.90517e-06 -0.00237154 -0.000314547 
13 2 1 0.624095 0.427933 0.429499 -0.000152084 0.00504016 -0.00305227 
14 6 1 0.824823 0.387167 0.405625 0.00173002 -0.00651087 0.00209774 
15 1 1 0.686466 0.514041 0.481572 -0.00145543 -0.0031174 0.00132731 
16 1 1 0.634984 0.542572 0.463896 -0.00860736 -0.00290137 -0.00419258 
17 1 1 0.588547 0.496499 0.418996 0.00201527 -0.00606751 -0.00713363 
18 1 1 0.689588 0.461746 0.374902 0.0031726 0.00119933 -0.00220899 
19 1 1 0.727942 0.355585 0.374854 -0.000490172 0.000658661 0.00217515 
20 1 1 0.777218 0.352587 0.298539 -0.00170782 0.00456003 -0.00109654 
21 1 1 0.729565 0.415089 0.470652 0.000914785 0.000128508 0.00060078 
22 3 1 0.719577 0.547298 0.430992 -0.00315745 0.00622051 0.0040527 
23 6 1 0.867743 0.402614 0.292615 -0.000513794 -0.00115908 0.00316894 
24 3 1 0.415876 0.428828 0.467629 -0.0016269 0.001843 -0.00453237 
25 3 1 0.436066 0.630896 0.534456 -0.000641118 -0.00987167 -0.00100187 
26 3 1 0.734021 0.320383 0.46098 0.000225946 0.00494398 0.00874728 
27 4 1 0.343905 0.688063 0.693488 -0.00323079 0.00608562 0.00110034 
28 4 1 0.315123 0.742769 0.626933 0.00333737 -0.0013106 -0.00534371 
29 5 1 0.322687 0.674952 0.786243 -0.0034401 0.00706432 0.00282665 
30 5 1 0.3887 0.708327 0.726279 0.00111357 0.00786431 -0.00584533 
31 4 1 0.320009 0.802035 0.704516 -0.000272687 0.00419475 -0.00247938 
32 5 1 0.269461 0.730329 0.60226 -0.00319401 0.00689696 0.00660318 
33 5 1 0.339438 0.749944 0.526753 -0.00208127 0.00833768 -0.00519355 
34 4 1 0.296223 0.851779 0.615117 -0.0010725 0.000700262 0.000249718 
35 5 1 0.363384 0.809489 0.744769 0.00163416 0.00274462 -0.00226249 
36 5 1 0.288997 0.797345 0.796745 -0.000494453 0.00208882 -0.00975397 
37 4 1 0.303014 0.914846 0.682936 -0.000348847 -0.00218805 0.00241157 
38 5 1 0.31275 0.84962 0.512833 -0.00931445 -0.000480995 -0.00366721 
39 5 1 0.246785 0.839574 0.608398 -0.00573283 0.000480763 -0.00818187 
40 6 1 0.289958 0.963802 0.581211 0.00479534 0.00258085 0.00249257 
41 5 1 0.309607 0.961687 0.488305 0.00263544 -0.00390221 0.00818602 
42 5 1 0.27388 0.0100301 0.614093 -0.000558629 -0.00562766 0.00823733 
43 5 1 0.24308 0.944495 0.543239 0.00712525 -0.00567891 -0.000426971 
44 5 1 0.345689 0.921738 0.730746 0.000941766 -0.00450678 0.00124019 
45 5 1 0.268252 0.918978 0.76776 0.000107122 -0.00632167 -0.00346524 
46 4 1 0.511655 0.37353 0.525763 -0.00529578 -0.00617987 0.00508982 
47 4 1 0.462701 0.333833 0.48668 -0.00222547 0.00543204 -0.000178289 
48 5 1 0.545339 0.360551 0.596212 -0.0043853 -0.00371338 -0.00241489 
49 5 1 0.542966 0.361055 0.429277 0.00267662 8.6697e-05 0.00881969 
50 4 1 0.487655 0.268553 0.478662 -0.00270643 0.000755497 0.00248874 
51 5 1 0.438596 0.346388 0.395909 -0.00598723 0.00694344 0.00108475 
52 5 1 0.428069 0.334902 0.57229 0.00280746 0.00957387 0.00118228 
53 4 1 0.439687 0.221262 0.48077 -0.000813737 0.00419589 -0.00449429 
54 5 1 0.526045 0.259501 0.539342 -0.0035205 -0.00279919 -0.00140696 
55 5 1 0.506541 0.265159 0.369102 0.00433323 0.00896979 0.0012348 
56 4 1 0.466907 0.157356 0.461118 -0.00121788 0.00223056 -0.00363168 
57 5 1 0.403561 0.231354 0.410917 -0.0050493 0.00278233 0.000707176 
58 5 1 0.419798 0.220858 0.588747 0.00130956 -0.00271523 0.00429476 
59 6 1 0.422951 0.107299 0.487641 0.00491135 0.00491567 -0.00282275 
60 5 1 0.3951 0.0890897 0.415455 0.00984839 -0.000411497 0.0014597 
61 5 1 0.405804 0.103639 0.590396 0.00512877 0.00857989 -0.000792229 
62 5 1 0.454307 0.0613309 0.49841 0.00210265 -0.000600814 -0.00592755 
63 5 1 0.506432 0.150051 0.518546 0.00847121 0.0045255 0.000137781 
64 5 1 0.481514 0.151783 0.350057 -0.00724764 0.004584 0.00213086 
65 4 1 0.620285 0.562305 0.618507 -0.00337833 0.0022599 0.000926872 
66 4 1 0.603031 0.630205 0.602499 0.000961107 -0.00209798 0.00398704 
67 5 1 0.660401 0.564071 0.681167 -0.00390799 -0.00774675 -0.00427943 
68 5 1 0.586772 0.541902 0.691216 -0.00267557 -0.00454244 -0.00403039 
69 4 1 0.653732 0.672749 0.581486 0.00477525 -0.00295719 0.00171227 
70 5 1 0.567913 0.64553 0.668636 0.00603693 -0.000403946 0.0012354 
71 5 1 0.580492 0.634397 0.496429 0.00305926 0.00305685 0.0061483 
72 4 1 0.636339 0.736806 0.635015 -0.00220757 -0.000783468 0.00457714 
73 5 1 0.662847 0.676681 0.473199 -0.00172963 0.00757604 -0.00368155 
74 5 1 0.69566 0.652917 0.630067 0.00818795 -0.00104485 -0.000204081 
75 4 1 0.585125 0.761071 0.567529 0.00309357 0.00182372 -0.0024082 
76 5 1 0.673372 0.767352 0.650428 -0.00487531 0.00682053 0.00558082 
77 5 1 0.621236 0.72615 0.746009 0.00315194 -0.00549667 -0.000610684 
78 6 1 0.56405 0.81619 0.640308 0.00232313 0.000350577 -0.0015406 
79 5 1 0.586312 0.858856 0.647433 0.00218853 0.00227647 7.0253e-05 
80 5 1 0.537059 0.807288 0.728077 0.00637958 -0.00485741 -0.00586159 
81 5 1 0.524686 0.832853 0.567907 0.00422112 -0.00326656 0.000972475 
82 5 1 0.549336 0.727415 0.548103 -0.00346607 -0.00769559 0.00397993 
83 5 1 0.598532 0.778985 0.46025 0.00394389 0.00595218 0.00376114 
84 4 1 0.804951 0.283045 0.349084 -0.00637637 0.00288451 -0.00272159 
85 4 1 0.763227 0.233045 0.30675 0.00103379 0.00148931 0.000949679 
86 5 1 0.838115 0.277926 0.42392 -0.00226214 0.00370865 0.00443825 
87 5 1 0.83764 0.279595 0.254455 0.00157226 -0.00668731 -0.0057021 
88 4 1 0.796645 0.174269 0.293268 -0.000911126 4.4223e-05 -0.00615536 
89 5 1 0.727971 0.24382 0.237247 0.00404142 0.00428318 -0.00735584 
90 5 1 0.73618 0.225454 0.406654 -0.0032511 -0.000296073 0.00826823 
91 4 1 0.75624 0.120835 0.315661 0.00221597 0.00324948 -0.00238019 
92 5 1 0.835619 0.169006 0.357508 -0.00433989 -0.00213925 -0.000691511 
93 5 1 0.816328 0.1688 0.187726 0.00436843 0.00716715 -0.00163121 
94 4 1 0.77539 0.0659643 0.236172 0.00351837 0.000378556 0.00168545 
95 5 1 0.710224 0.129981 0.295536 0.00327183 0.00762302 0.00566625 
96 5 1 0.755665 0.104573 0.427317 0.00383507 0.00892322 -0.00250182 
97 6 1 0.831197 0.0415435 0.286711 0.000659866 -0.000764439 0.00197409 
98 5 1 0.84789 -0.00122278 0.256216 -0.00392987 0.00346988 0.00654861 
99 5 1 0.838334 0.0499237 0.393854 0.00352797 -0.00840337 0.00399057 
100 5 1 0.865788 0.0777931 0.243584 0.00486384 0.00386843 0.00786583 
101 5 1 0.771819 0.0712203 0.127623 0.00320137 0.000833734 0.0041503 
102 5 1 0.739305 0.026953 0.25732 0.00799226 0.00432499 -0.00413373 
ITEM: TIMESTEP
400
ITEM: NUMBER OF ATOMS
102
ITEM: BOX BOUNDS pp pp pp
-11.6831 13.1281
-11.6831 11.1281
-5.68308 5.12808
ITEM: ATOMS id type mol xs ys zs vx vy vz 
1 1 1 0.396594 0.618749 0.56626 -0.0011511 -0.00160044 0.000451139 
2 1 1 0.340484 0.63656 0.561195 -0.00147354 0.000616362 0.00529642 
3 6 1 0.313326 0.590823 0.66516 -0.00121315 0.00148741 0.00336967 
4 1 1 0.4146 0.558105 0.61118 0.00163942 0.00398762 -0.00454002 
5 2 1 0.334954 0.525762 0.621732 0.00113356 -0.000351178 9.85441e-05 
6 6 1 0.249497 0.588948 0.594702 -0.00335724 0.00184072 0.0057648 
7 1 1 0.423008 0.519006 0.4809 -1.23298e-06 -0.00157822 0.00325753 
8 1 1 0.44369 0.460305 0.53705 0.00100802 0.000630965 0.00261623 
9 1 1 0.495862 0.443755 0.467298 -0.00528006 -0.00548257 -0.00651507 
10 1 1 0.539166 0.478812 0.540876 -0.00320699 0.00373591 -0.0035128 
11 2 1 0.50488 0.554595 0.478451 -0.0023529 -0.000170823 -0.00198 
12 2 1 0.792346 0.452502 0.421507 0.00493199 0.00380078 0.000378465 
13 2 1 0.626969 0.424966 0.47076 -0.000348674 -0.00256349 0.00521192 
14 6 1 0.824995 0.39294 0.393283 0.00363897 -0.00644496 -0.00017842 
15 1 1 0.685017 0.516753 0.466124 -0.00593307 0.00584532 -5.30509e-05 
16 1 1 0.630155 0.538169 0.455696 0.00664491 -0.00594473 0.00341831 
17 1 1 0.589535 0.485275 0.416178 -0.000599241 0.000974622 -0.00345411 
18 1 1 0.68815 0.453725 0.383704 -0.00181762 -0.00310299 -0.00240297 
19 1 1 0.732057 0.350884 0.413313 0.00229681 0.00334797 0.000162588 
20 1 1 0.767483 0.355749 0.310994 0.00485904 -0.000895662 0.00298912 
21 1 1 0.732516 0.417917 0.485246 -0.0030906 0.00131801 -0.00238917 
22 3 1 0.710876 0.547343 0.390456 0.00278675 -0.00647062 -0.0050751 
23 6 1 0.853889 0.405565 0.259659 -0.00386623 -0.00018003 -0.00927157 
24 3 1 0.413046 0.425941 0.47865 0.00115195 0.00156029 0.00502752 
25 3 1 0.415863 0.624078 0.461014 -0.00823285 -0.00536013 5.22948e-05 
26 3 1 0.759279 0.32832 0.499372 -0.00108345 0.00662347 0.00659894 
27 4 1 0.344656 0.694915 0.67569 -0.000533496 -0.00280459 -0.00384264 
28 4 1 0.318425 0.74715 0.599982 0.0023567 -0.00243097 0.00078094 
29 5 1 0.323764 0.690291 0.772631 -0.00505435 0.00183667 -0.00689575 
30 5 1 0.392494 0.710893 0.696289 -0.00372077 -0.00717855 -0.00591711 
31 4 1 0.326261 0.804991 0.682007 8.49454e-05 0.000789509 -0.000313993 
32 5 1 0.273833 0.73869 0.56688 0.00089555 0.00281635 0.00325477 
33 5 1 0.344839 0.754312 0.500566 0.00452209 0.00160942 0.00766006 
34 4 1 0.298247 0.857807 0.607289 -0.00209199 -0.00142939 0.00257609 
35 5 1 0.369857 0.813772 0.72055 0.00274059 -0.00462822 -0.00741649 
36 5 1 0.295671 0.800265 0.774355 0.00460459 -0.00477712 -0.00174964 
37 4 1 0.30315 0.918248 0.684906 0.00164929 -0.000180763 0.000333739 
38 5 1 0.303352 0.857996 0.499347 -0.0051149 -0.00311053 0.00481143 
39 5 1 0.24786 0.845483 0.617749 0.00675714 -0.00299249 0.00162434 
40 6 1 0.292887 0.972311 0.592404 0.000536467 0.00339351 -0.00434769 
41 5 1 0.319955 0.978171 0.511642 -0.00321159 0.00709719 -0.00634008 
42 5 1 0.278769 0.0160598 0.641492 0.00498665 0.000846064 0.00704076 
43 5 1 0.247835 0.957728 0.540806 0.00574222 -0.00736544 -0.00117646 
44 5 1 0.341766 0.922123 0.747917 -0.00330658 -0.00154551 -0.00187944 
45 5 1 0.265235 0.916489 0.762295 0.00958576 0.000353618 0.000137707 
46 4 1 0.506681 0.374513 0.55008 -0.00265787 0.00137218 0.00389858 
47 4 1 0.463502 0.331643 0.491268 -0.00160443 0.00447785 0.00134179 
48 5 1 0.5302 0.366845 0.640384 0.00332518 -0.000811378 0.00210222 
49 5 1 0.546901 0.359558 0.477178 -0.00190431 0.00238916 -0.00957591 
50 4 1 0.488997 0.267585 0.486922 0.00239589 4.62448e-05 0.00431949 
51 5 1 0.442816 0.345768 0.398074 -0.00743736 0.00527597 -0.00104208 
52 5 1 0.425522 0.329289 0.568604 -0.00150038 -0.00872307 -0.00163311 
53 4 1 0.440406 0.221135 0.474483 -0.00332521 7.83361e-05 -0.000921403 
54 5 1 0.526538 0.256207 0.547838 -0.00123668 0.00527782 -0.00146283 
55 5 1 0.508896 0.266056 0.376923 0.0039855 0.0064063 0.00652645 
56 4 1 0.466685 0.15758 0.457685 0.000322912 0.000483582 -0.00164966 
57 5 1 0.403676 0.233201 0.412565 -0.00888375 -0.00121979 -0.00448177 
58 5 1 0.419871 0.219751 0.581473 -0.00283075 -0.00903037 -0.00323972 
59 6 1 0.422909 0.107506 0.47875 0.00171142 -0.00384448 -0.000242123 
60 5 1 0.400111 0.0881994 0.399252 -0.00520992 -0.000266128 -0.00649994 
61 5 1 0.404487 0.100926 0.579295 -0.00478357 -0.00238042 0.000730862 
62 5 1 0.457201 0.0632636 0.49053 -0.00377695 -0.00877839 0.00129074 
63 5 1 0.507968 0.147274 0.51027 -0.00446349 0.00401734 0.00124271 
64 5 1 0.481118 0.152263 0.346486 0.00556022 -0.00142427 0.00432428 
65 4 1 0.616972 0.556106 0.611921 -0.000861154 0.00357426 -0.00429631 
66 4 1 0.603191 0.625357 0.601451 0.000596913 0.00492169 0.000563614 
67 5 1 0.656142 0.555993 0.67701 0.000745593 0.00166436 0.00329769 
68 5 1 0.581204 0.539364 0.68576 0.00527854 -0.000154637 -0.00844423 
69 4 1 0.654553 0.663865 0.588376 -0.00340443 -0.000175641 0.00310075 
70 5 1 0.570747 0.642019 0.67264 0.00115361 0.00305644 0.000763949 
71 5 1 0.578061 0.63439 0.499885 0.00447223 -0.00656177 -0.00222818 
72 4 1 0.64244 0.727178 0.650162 0.00527327 -0.00339079 -0.000414563 
73 5 1 0.672635 0.669237 0.487607 -0.000487182 0.00406366 0.00844051 
74 5 1 0.693477 0.642377 0.651102 0.00142902 0.00916225 -0.00382899 
75 4 1 0.600201 0.758966 0.565474 -0.00166576 0.00302031 0.000660043 
76 5 1 0.681963 0.754355 0.67104 0.00718429 -0.00564748 -0.00314071 
77 5 1 0.621164 0.717261 0.75534 0.00120032 -0.00773342 -0.00625318 
78 6 1 0.572098 0.810831 0.632112 0.000982869 -0.00372347 -0.0015777 
79 5 1 0.589067 0.85546 0.643344 0.00847844 -0.00444833 -0.00289365 
80 5 1 0.548185 0.796905 0.722912 0.000947751 -0.00588719 -0.00589548 
81 5 1 0.529454 0.822726 0.566124 0.000920763 -0.0092064 -0.0038025 
82 5 1 0.569208 0.729497 0.508811 0.00332191 -0.00489354 0.00447047 
83 5 1 0.626822 0.782685 0.477621 0.00663844 -0.00622545 0.00406224 
84 4 1 0.804787 0.287987 0.330096 -0.00135239 0.00196374 -0.000902897 
85 4 1 0.762858 0.240028 0.280191 -0.000263714 0.00170511 0.00140247 
86 5 1 0.829193 0.277387 0.419237 -0.00800609 0.00168794 0.00359325 
87 5 1 0.840527 0.289841 0.246451 0.0015032 0.00243484 0.00632307 
88 4 1 0.792685 0.179327 0.266771 0.00175623 -0.00158211 0.000549123 
89 5 1 0.731026 0.254484 0.204768 0.00720157 0.006465 -0.00259231 
90 5 1 0.731493 0.234756 0.373724 -0.000812587 -0.00207676 -0.00521443 
91 4 1 0.758448 0.125073 0.319198 -0.000883364 0.00125953 -0.00665323 
92 5 1 0.837602 0.179181 0.302373 0.00946144 -0.00139486 -0.00294486 
93 5 1 0.799696 0.170585 0.152482 -0.00856984 -0.0026394 0.000504284 
94 4 1 0.773098 0.0688411 0.238938 -0.00194491 0.00120399 0.00459306 
95 5 1 0.711093 0.133079 0.319901 0.00409091 -0.00406232 0.00273448 
96 5 1 0.768796 0.116944 0.432407 -0.000715095 0.00198115 -0.00982827 
97 6 1 0.827143 0.0380552 0.283899 0.00275122 -0.00260883 -0.000537153 
98 5 1 0.837088 -0.00720342 0.25344 -0.0011141 -0.00527618 0.00156079 
99 5 1 0.8377 0.048603 0.388558 -0.00455357 -0.00228159 0.00509236 
100 5 1 0.864523 0.06803 0.230585 -0.000532694 -0.00407946 -0.00748827 
101 5 1 0.766065 0.0713035 0.131673 -0.00391259 -0.00410605 -0.0082796 
102 5 1 0.737018 0.0306711 0.266325 0.00473862 -0.00233308 0.00428584 
ITEM: TIMESTEP
600
ITEM: NUMBER OF ATOMS
102
ITEM: BOX BOUNDS pp pp pp
-11.6831 13.1281
-11.6831 11.1281
-5.68308 5.12808
ITEM: ATOMS id type mol xs ys zs vx vy vz 
1 1 1 0.393111 0.617882 0.535292 0.00027881 0.00335927 -0.00140556 
2 1 1 0.338447 0.634749 0.575137 -3.40794e-06 -0.0048958 -0.00372552 
3 6 1 0.329499 0.592752 0.697758 0.0017423 0.000542757 -0.00158733 
4 1 1 0.417605 0.562683 0.5874 -0.00303846 -0.00049666 0.00663253 
5 2 1 0.343628 0.527864 0.642743 -0.00134632 0.000932663 0.00348819 
6 6 1 0.259956 0.590645 0.68873 0.000245853 -0.000443744 0.0055835 
7 1 1 0.420671 0.516375 0.47051 0.00417947 0.00232072 0.00424369 
8 1 1 0.439528 0.458382 0.525325 -0.00447774 0.0026 0.00361652 
9 1 1 0.494142 0.439972 0.465009 0.00242221 -0.00357353 -0.00899268 
10 1 1 0.536631 0.475482 0.536965 0.00276651 -0.00229288 8.52553e-05 
11 2 1 0.503298 0.550436 0.458256 -0.00102349 0.00216037 0.000745053 
12 2 1 0.79107 0.458334 0.390143 -0.00184447 -0.000761122 -0.00458664 
13 2 1 0.630422 0.427961 0.497683 0.00107791 0.000221327 -0.00254911 
14 6 1 0.823061 0.397628 0.356541 -0.00409721 0.00409019 -0.00183534 
15 1 1 0.682458 0.521324 0.429168 3.56543e-06 0.0034757 -0.00279339 
16 1 1 0.624861 0.538465 0.440628 0.00383983 0.00448548 0.00173909 
17 1 1 0.587788 0.478308 0.416437 0.000526894 -0.00316165 -0.000506033 
18 1 1 0.684619 0.451513 0.382613 -0.00283296 0.00421999 -0.00250857 
19 1 1 0.737881 0.358153 0.437551 -0.00438371 0.00718721 0.000215095 
20 1 1 0.760998 0.356792 0.315001 0.000838534 -0.00391663 -0.00406012 
21 1 1 0.737611 0.43028 0.484126 -0.00346061 -0.00581251 -0.00569272 
22 3 1 0.694654 0.542302 0.326159 0.000209524 -0.00409387 -0.00223975 
23 6 1 0.840704 0.40437 0.214791 -0.00501041 -0.000808357 -0.00373704 
24 3 1 0.408972 0.424027 0.470181 -0.00472082 0.00373651 -0.00662754 
25 3 1 0.390982 0.615382 0.421689 -0.00385227 -0.00500674 -0.00777718 
26 3 1 0.77358 0.344712 0.512734 -0.00425793 -0.00740381 -0.00522542 
27 4 1 0.356196 0.696671 0.669535 0.00376144 -0.000921842 0.0033457 
28 4 1 0.325095 0.74724 0.600282 -0.000985557 -0.00211932 -0.00519204 
29 5 1 0.339785 0.696783 0.772707 0.00546232 -0.00711278 0.00433019 
30 5 1 0.40469 0.712894 0.672753 -0.00173987 -0.00750936 -0.00637776 
31 4 1 0.328584 0.805196 0.680359 0.00321494 0.00779231 0.00536448 
32 5 1 0.281445 0.735477 0.566111 0.00205501 0.00277975 0.00399734 
33 5 1 0.350881 0.756475 0.501359 0.00831784 0.00215617 0.00378597 
34 4 1 0.297198 0.858206 0.61608 0.00451756 0.00518075 -1.64734e-05 
35 5 1 0.373006 0.816478 0.710793 0.00256851 -9.00862e-05 0.00872823 
36 5 1 0.305861 0.792922 0.782004 0.00989072 -0.00116945 7.15612e-06 
37 4 1 0.305614 0.916687 0.696671 0.00170685 -0.00571421 0.00432529 
38 5 1 0.30675 0.863239 0.510111 -0.00300125 -0.00237937 -0.00709536 
39 5 1 0.247138 0.847354 0.620668 0.0062493 0.00147764 -0.00189255 
40 6 1 0.295282 0.970383 0.606398 0.00227788 -0.00101904 0.00639188 
41 5 1 0.318336 0.977509 0.518152 -0.00198588 -0.0066972 -0.00165828 
42 5 1 0.28082 0.0143916 0.652861 -0.000522858 0.00716997 -0.00698915 
43 5 1 0.24832 0.957882 0.558818 -0.00433015 -0.0065541 0.00617926 
44 5 1 0.348057 0.920685 0.747679 0.00321083 -0.00614589 0.00715589 
45 5 1 0.270765 0.919515 0.782115 0.000501658 -0.00696957 0.00331322 
46 4 1 0.5034 0.374501 0.55457 0.000635242 0.00088757 0.00282072 
47 4 1 0.46323 0.329723 0.488971 -0.00324648 -0.000458029 -0.0025981 
48 5 1 0.517558 0.364307 0.654728 0.000363852 -0.00427526 -0.0019416 
49 5 1 0.5469 0.358998 0.498137 0.00382097 -0.00258829 -0.000746085 
50 4 1 0.487701 0.264275 0.50107 0.00461732 -0.00567791 0.00130757 
51 5 1 0.444663 0.34141 0.391566 -0.00208485 0.002362 0.00441697 
52 5 1 0.421948 0.330094 0.557794 -0.00511871 -0.00597863 0.000392315 
53 4 1 0.440583 0.217288 0.491922 -0.00191173 -0.000680248 -0.00289572 
54 5 1 0.520214 0.257603 0.580212 0.002935 0.000531615 0.00298107 
55 5 1 0.516591 0.25944 0.405951 -0.00196559 0.00492975 0.00626991 
56 4 1 0.46529 0.156769 0.449673 -0.00257195 -0.00389314 0.00237461 
57 5 1 0.403634 0.231122 0.429011 0.00256872 0.000369099 0.00882021 
58 5 1 0.423822 0.210808 0.60094 -0.00547644 -0.00355106 0.0075784 
59 6 1 0.423911 0.107766 0.47939 0.00142076 0.00426295 -0.00151591 
60 5 1 0.401638 0.0844977 0.404372 0.00194075 0.00877222 -0.00434922 
61 5 1 0.396487 0.111486 0.568571 0.00446638 0.00248168 -0.000179544 
62 5 1 0.45249 0.0643999 0.517259 0.0082542 0.00415599 -0.00206633 
63 5 1 0.51093 0.145835 0.471976 -0.000290922 -0.0096379 -0.00260825 
64 5 1 0.466391 0.158702 0.331816 -0.00194161 0.00165228 0.00285911 
65 4 1 0.623316 0.550397 0.604136 0.00191021 0.000391645 0.00122952 
66 4 1 0.604461 0.61876 0.608768 0.00380354 0.00304727 0.000387918 
67 5 1 0.667119 0.549745 0.65094 -0.00218774 0.000378862 0.0063067 
68 5 1 0.594575 0.524493 0.67959 -0.00120308 -0.00955883 -0.00251129 
69 4 1 0.655176 0.65782 0.58004 0.00140487 -0.00490237 0.000525651 
70 5 1 0.577357 0.630226 0.695915 1.67888e-06 0.00525888 0.00654987 
71 5 1 0.571081 0.627699 0.520658 -0.00164773 -0.00405873 0.00897128 
72 4 1 0.645528 0.721931 0.639053 -0.00142364 -0.000915472 -0.0020356 
73 5 1 0.67225 0.658753 0.478607 -0.00849175 0.000107006 0.00426731 
74 5 1 0.694782 0.638396 0.642327 0.00993779 0.000188035 0.000648177 
75 4 1 0.604087 0.75719 0.555904 0.000245508 -0.00214547 0.000347404 
76 5 1 0.68627 0.748806 0.652045 0.00328721 0.00209335 0.0070076 
77 5 1 0.62846 0.716642 0.74778 -0.00207599 0.00526201 0.0078599 
78 6 1 0.569612 0.799805 0.643613 0.00618021 -0.00240524 0.000462217 
79 5 1 0.582263 0.846786 0.651537 -0.000423329 -0.00240184 0.00891674 
80 5 1 0.545619 0.779604 0.727995 0.00689554 0.000347759 0.00226665 
81 5 1 0.527055 0.808425 0.5754 -0.00594644 -0.00432252 0.00225978 
82 5 1 0.578157 0.728479 0.485866 0.00101369 0.00318985 -0.00889776 
83 5 1 0.632196 0.790003 0.486103 -0.000756882 0.00432644 0.00897793 
84 4 1 0.801564 0.289892 0.325787 -0.00511032 0.00231585 0.00153601 
85 4 1 0.759464 0.242052 0.282914 4.18625e-05 -0.0021939 -9.84851e-05 
86 5 1 0.825888 0.279499 0.415488 0.00715502 -0.0052059 -0.0041928 
87 5 1 0.835115 0.291397 0.238143 -0.00444662 -0.00103421 0.00758996 
88 4 1 0.790868 0.181158 0.27636 -0.00184283 -0.00364044 -0.00249884 
89 5 1 0.732143 0.253828 0.197125 -0.00170913 -0.00510694 -0.00160907 
90 5 1 0.725513 0.239542 0.371002 0.000931061 -0.00960073 0.00254239 
91 4 1 0.747449 0.130543 0.316002 0.00198794 0.00231496 0.000888955 
92 5 1 0.833869 0.178375 0.321203 -0.00609916 -0.0071022 0.000758219 
93 5 1 0.799887 0.172257 0.162466 0.00494203 -0.0039217 -0.00774251 
94 4 1 0.763406 0.0736241 0.23984 -0.000618254 0.00159554 0.00171351 
95 5 1 0.701604 0.14512 0.299929 -0.00117919 -0.00228457 -0.00524973 
96 5 1 0.751643 0.121893 0.429903 -0.00434588 0.00203465 -0.000396248 
97 6 1 0.813443 0.0422521 0.303595 -0.00381293 0.00108523 0.00139226 
98 5 1 0.823582 -0.00532058 0.286871 -0.00809912 0.00335129 0.00487263 
99 5 1 0.835351 0.06483 0.386745 0.00651116 0.00324288 0.00681613 
100 5 1 0.850462 0.0609299 0.224232 0.00231514 -0.0055852 -0.00106663 
101 5 1 0.757728 0.0757103 0.131539 0.00624722 0.00452785 -0.00557015 
102 5 1 0.724505 0.0374011 0.26474 0.00918333 0.000373276 -0.00386833 
ITEM: TIMESTEP
800
ITEM: NUMBER OF ATOMS
102
ITEM: BOX BOUNDS pp pp pp
-11.6831 13.1281
-11.6831 11.1281
-5.68308 5.12808
ITEM: ATOMS id type mol xs ys zs vx vy vz 
1 1 1 0.384634 0.619376 0.505014 0.00303538 0.00518874 0.00197893 
2 1 1 0.334314 0.640994 0.564595 -0.00327661 0.00447495 -0.00454059 
3 6 1 0.321118 0.593481 0.675058 -0.000437584 0.00233336 -0.00539166 
4 1 1 0.409773 0.567464 0.577257 0.00294936 -0.00524818 -0.00560569 
5 2 1 0.332799 0.530834 0.604271 0.00112 0.00239469 -0.00197341 
6 6 1 0.251179 0.5981 0.654235 0.00106499 0.00200785 -0.00341744 
7 1 1 0.42146 0.518639 0.467965 0.000387669 0.000776717 -0.00308374 
8 1 1 0.441241 0.464049 0.539272 -0.00334833 -0.00485098 0.00583971 
9 1 1 0.493808 0.441613 0.47397 0.00499667 -0.00499206 0.0019374 
10 1 1 0.536316 0.48277 0.536352 -0.00455985 0.000102681 -0.000385771 
11 2 1 0.501904 0.554223 0.463167 -0.00376812 0.000722924 0.00106447 
12 2 1 0.790697 0.456276 0.386105 -0.00193955 -0.00177199 -0.000944558 
13 2 1 0.62698 0.426333 0.479606 0.000733184 0.00287588 -0.00112727 
14 6 1 0.821385 0.395812 0.34977 -0.00237629 0.001551 0.00294287 