ITEM: TIMESTEP
0
ITEM: NUMBER OF ATOMS
140
ITEM: BOX BOUNDS pp pp pp
-21.6928 20.21
-21.6928 20.21
-21.6928 20.21
ITEM: ATOMS id type mol xs ys zs vx vy vz 
50 7 1 0.440471 0.48101 0.491254 0.00368634 -0.00167499 -0.000389805 
52 9 1 0.457951 0.468549 0.475628 -0.00597339 -0.00213084 0.00309112 
53 9 1 0.422783 0.491919 0.474867 0.0151553 -0.000830765 -0.00762573 
54 7 1 0.406 0.431915 0.492569 -0.00286559 -0.00388214 0.00165811 
64 9 1 0.422347 0.416208 0.478779 0.010796 -0.00493958 0.00905159 
65 9 1 0.392244 0.446478 0.475116 -0.00665596 0.011682 -0.00323999 
66 7 1 0.360534 0.392602 0.486851 -0.0013275 -9.58984e-05 0.00315943 
70 9 1 0.376465 0.375414 0.474405 -0.0107155 -0.000311426 -0.00450295 
71 9 1 0.349255 0.408392 0.468747 -0.00529453 -0.0149009 -0.0105173 
73 9 1 0.320564 0.359771 0.486463 -0.00667443 -0.013219 -0.0120637 
87 6 1 0.253285 0.496674 0.48238 -0.0144696 0.0137069 -0.0155105 
88 6 1 0.315418 0.497322 0.483592 0.00058718 0.00392413 0.0147964 
103 7 1 0.0716912 0.474541 0.467666 0.00147443 0.00305643 0.00369337 
106 7 1 0.0353851 0.471474 0.464008 0.00262897 0.00378263 0.00228289 
107 9 1 0.0813477 0.452028 0.477888 0.00194722 -0.0143885 0.00397282 
108 9 1 0.0827635 0.478537 0.443863 -0.0152665 0.00899014 -0.000691067 
135 10 1 0.0263762 0.441773 0.44499 -0.00411613 -0.000318515 0.00263851 
136 9 1 0.0258437 0.493086 0.451903 0.00958317 0.0119151 0.0110033 
137 9 1 0.0240929 0.469486 0.487934 -0.0123431 -0.00548583 -0.00211745 
138 9 1 0.0370045 0.442514 0.420742 0.0143655 -0.0119092 0.0127831 
139 9 1 0 0.440329 0.442824 0.0129014 0.00306029 -0.00356339 
140 9 1 0.0349001 0.420061 0.457629 -0.0151129 -0.010993 -0.00763757 
6 4 1 0.507655 0.493299 0.496612 0.00285052 0.00221253 -0.000638388 
85 3 1 0.2669 0.510464 0.49944 0.0031204 -1.95986e-05 -0.00130073 
97 7 1 0.116163 0.505224 0.495105 -0.00399536 -0.0019131 -0.00384104 
100 7 1 0.0799985 0.501894 0.490488 -0.00193581 -0.00290357 -0.00452433 
102 9 1 0.12731 0.512638 0.472176 0.00613814 -0.0153116 0.00381352 
104 9 1 0.0701326 0.524812 0.481406 0.00425333 0.00363242 -0.00158604 
14 6 1 0.557987 0.516486 0.496394 0.0100858 -0.0120871 0.00508438 
126 7 1 0.901784 0.543257 0.468471 0.00119267 0.00127526 -0.00447522 
128 9 1 0.89126 0.585664 0.496741 0.0102891 0.0105769 0.0150833 
129 10 1 0.936582 0.548799 0.459169 -0.00108649 -0.00303579 -0.00244053 
130 9 1 0.885217 0.552207 0.449736 0.00783799 -0.00194746 0.00757024 
131 9 1 0.898714 0.517012 0.470545 0.00342375 -0.0101821 0.00792734 
132 9 1 0.942188 0.574608 0.457417 0.00839442 -0.00998704 -0.0126802 
133 9 1 0.941749 0.536953 0.436058 0.00843811 -0.00538538 0.00452962 
134 9 1 0.95227 0.537808 0.477596 0.0147141 0.00909052 0.00484502 
51 8 1 0.425527 0.4554 0.513647 0.000361255 -0.00104296 -0.00330924 
55 7 1 0.452883 0.440136 0.533714 -0.00311417 0.000389122 0.001904 
56 9 1 0.408716 0.467322 0.53013 0.00810258 0.0030722 0.00612261 
57 10 1 0.443447 0.414921 0.558168 0.00281539 0.00257382 -0.000479146 
58 9 1 0.464402 0.459586 0.547576 -0.0108944 0.00694353 -0.00412239 
59 9 1 0.471217 0.429609 0.517672 0.0133077 0.00952253 -0.000304576 
60 9 1 0.464663 0.40881 0.572837 -0.00801347 0.00910032 0.0108529 
61 9 1 0.436266 0.392476 0.546373 -0.000738964 -0.0109909 -0.00506153 
62 9 1 0.424427 0.424054 0.574205 -0.00169836 0.0143927 -0.00793159 
63 7 1 0.380159 0.412706 0.510342 -0.00302009 0.000722838 0.00374927 
67 9 1 0.363957 0.429673 0.522776 -0.00603916 0.00302676 0.00396298 
68 9 1 0.390236 0.396446 0.528262 0.00975381 -0.00731548 -0.0079109 
69 10 1 0.334321 0.374054 0.504038 -0.00337545 0.00276569 -0.00205912 
72 9 1 0.344884 0.357597 0.521937 -0.000314304 -0.0126902 -0.00850901 
74 9 1 0.317737 0.390744 0.516257 -0.00448356 0.00338061 -0.0139339 
101 9 1 0.12631 0.481816 0.502445 0.00043278 0.0106804 0.0103115 
105 9 1 0.0688135 0.496532 0.51396 -0.00183212 -0.0126619 -0.0100505 
1 1 2 0.456326 0.506714 0.509239 -0.00389889 0.00285366 -0.00331995 
2 2 2 0.48884 0.510603 0.510334 0.00421968 0.000381512 0.00267829 
3 3 2 0.496603 0.536055 0.529528 0.000602343 -0.0025854 0.00260861 
4 3 2 0.467422 0.54845 0.540945 -0.00313088 -0.00468576 -0.00229313 
5 3 2 0.442881 0.530079 0.527945 -0.00183296 -0.00230834 -0.00103059 
7 2 2 0.475277 0.573895 0.560087 0.00411149 0.00197833 0.00082398 
24 4 1 0.456488 0.59121 0.573918 -0.00215267 -0.00137865 0.0024753 
32 10 1 0.490121 0.664816 0.54975 0.00242387 0.00366827 0.00128449 
35 9 1 0.475587 0.651328 0.567207 -0.00731629 -0.0131588 0.015889 
36 9 1 0.473743 0.674488 0.531307 -0.0113426 -0.00530838 -0.00234835 
75 3 1 0.407924 0.535293 0.53318 0.00159631 0.00183173 0.000181956 
76 3 1 0.393678 0.554657 0.556572 0.0046643 0.000355457 -0.00321367 
77 3 1 0.359756 0.55477 0.555514 -0.00381066 -0.00449997 0.00440098 
78 6 1 0.406465 0.568 0.574267 4.84224e-05 -0.00827263 -0.00835327 
79 3 1 0.347258 0.535664 0.531292 0.00280236 0.00420529 0.000918355 
80 6 1 0.345215 0.56825 0.572055 -0.000148116 -0.0117006 -0.00222858 
81 5 1 0.377919 0.519658 0.51228 -0.0020901 0.00129812 0.00167875 
82 3 1 0.313368 0.53034 0.524159 0.00057737 0.000509978 0.00176464 
83 5 1 0.282657 0.54618 0.543468 0.0026365 0.00171397 -0.00228318 
84 3 1 0.253051 0.529665 0.523011 0.00300074 0.00179156 -0.0038668 
86 3 1 0.300857 0.510841 0.500086 0.00373246 0.0014488 -0.00154784 
89 3 1 0.2188 0.534498 0.528679 -0.000846536 0.00398487 0.000418319 
90 3 1 0.205096 0.554052 0.552031 -0.00277862 -0.00363502 0.000322789 
91 3 1 0.171162 0.55397 0.551365 0.000195233 0.0028934 0.00271368 
92 6 1 0.2188 0.567955 0.568935 -0.00766851 0.000417311 -0.00393135 
93 3 1 0.158392 0.534305 0.527596 -0.0033378 0.0012346 0.00158698 
94 6 1 0.156679 0.567737 0.567725 -0.013157 -0.00911535 0.0108192 
95 5 1 0.189056 0.517887 0.508461 0.000841151 -0.000316452 -8.23357e-05 
96 7 1 0.123385 0.529657 0.52143 0.000505342 0.00323146 0.00398947 
98 9 1 0.112832 0.553135 0.515063 0.013133 -0.00833063 0.000587335 
99 9 1 0.112249 0.521176 0.543976 0.00636143 -0.00656773 -0.00506187 
8 3 2 0.521154 0.554189 0.542682 0.00416376 -0.00197061 0.00393523 
9 1 2 0.50779 0.577744 0.561278 0.00335754 -0.000864375 -0.000189788 
10 3 1 0.556029 0.548353 0.538127 0.00250801 0.00215442 0.000555127 
11 3 1 0.570534 0.529051 0.514837 -0.00135723 -0.00335148 0.0044516 
12 5 1 0.585579 0.562392 0.560621 -0.00226134 -0.00183118 -0.000351739 
13 3 1 0.604357 0.52768 0.517342 0.00226974 -0.00407007 -0.0042004 
15 3 1 0.616398 0.545688 0.542607 0.00315858 -0.00164199 0.00286333 
16 6 1 0.619148 0.513961 0.501221 0.0128031 -0.000642476 0.0158029 
17 5 1 0.772415 0.553941 0.577647 0.000412089 0.000998734 -0.000393064 
18 3 1 0.744056 0.540056 0.553928 -0.00187588 0.00243861 -0.00261628 
19 3 1 0.803877 0.537658 0.560214 -0.00081773 0.000969546 -0.00445743 
20 3 1 0.758918 0.521194 0.530715 0.00334213 0.00394031 -0.00391132 
21 3 1 0.792663 0.519815 0.534257 -0.000728918 -0.004608 -0.000649214 
22 6 1 0.746163 0.508764 0.512015 -0.00996385 0.00487969 -0.0115895 
23 6 1 0.807861 0.506003 0.518625 0.0001083 0.0144944 -0.0121546 
25 7 1 0.523791 0.603399 0.579184 0.00368592 0.00060579 0.0035421 
26 8 1 0.539748 0.628263 0.556621 -0.00416189 0.00262567 -0.00223348 
27 9 1 0.541094 0.592577 0.596025 -0.00505681 0.0142986 -0.00248109 
28 9 1 0.50638 0.616225 0.594485 -0.0053769 -0.00327792 0.0152957 
29 7 1 0.515012 0.643428 0.533659 0.00364181 0.0036654 -0.00085594 
30 7 1 0.559434 0.652023 0.577337 -0.00267624 -0.00180009 0.00209675 
31 9 1 0.55692 0.615552 0.541114 -0.00932771 0.00387377 -0.00657124 
33 9 1 0.502359 0.624199 0.520513 0.0153397 -0.0108511 -0.00392583 
34 9 1 0.527586 0.657074 0.51498 -0.0147128 -0.012271 -0.00748206 
37 9 1 0.501602 0.685205 0.562064 0.00446857 0.00417793 -0.00293636 
38 7 1 0.581796 0.675677 0.560045 -0.00283215 -0.00254405 -0.00113758 
39 9 1 0.575761 0.636708 0.591652 -0.0095388 0.00967527 -0.00327044 
40 9 1 0.544112 0.665017 0.594651 -0.00939858 -0.0133013 0.000437421 
41 7 1 0.565718 0.705785 0.546515 -0.00173587 0.00265161 0.00158841 
42 9 1 0.59584 0.66292 0.541499 0.00600759 0.0114285 -0.012355 
43 9 1 0.598863 0.684431 0.578428 -0.0140534 -0.0031283 -0.00834652 
44 10 1 0.590529 0.728612 0.532684 -0.00109547 0.00236 -0.000256718 
45 9 1 0.552718 0.718262 0.565984 0.0116907 -0.00707836 0.0111884 
46 9 1 0.548687 0.700351 0.527312 -0.00962117 -0.0103508 -0.00209067 
47 9 1 0.60786 0.735928 0.551365 -0.0114883 -0.0117548 0.00647505 
48 9 1 0.578472 0.750319 0.523417 -0.000835237 -0.010876 -0.0098167 
49 9 1 0.603598 0.717001 0.512751 0.00288144 0.0130772 -0.00168716 
109 3 1 0.649935 0.549183 0.551852 0.000379299 -0.00108731 -0.00424718 
110 3 1 0.661705 0.567271 0.57734 -0.00184153 0.000766602 0.00396296 
111 3 1 0.695437 0.56572 0.58035 0.000870067 0.00233386 0.00151503 
112 6 1 0.646772 0.581064 0.593263 0.000816339 -0.0154972 -0.00574844 
113 3 1 0.709847 0.546457 0.557181 0.00096847 0.0016828 -0.00276878 
114 6 1 0.708521 0.578239 0.598762 0.00176511 0.00261788 -0.014627 
115 5 1 0.681005 0.532242 0.534149 0.000524012 -0.00261948 3.41239e-05 
116 7 1 0.837513 0.540991 0.57167 -0.000343138 -0.000918986 0.0029762 
117 7 1 0.859587 0.559966 0.549435 -0.00185712 -0.00387733 -0.000247979 
118 9 1 0.847535 0.51686 0.576263 0.0109925 -0.00215331 0.00630142 
119 9 1 0.837074 0.554006 0.594777 4.5936e-05 0.0133964 0.00100227 
120 7 1 0.865122 0.544481 0.516704 0.000173173 -0.000195677 -0.000936344 
121 9 1 0.88282 0.561237 0.562201 -0.010546 -0.00713782 -0.00445002 
122 9 1 0.850673 0.584759 0.546198 -0.00406577 0.013185 0.000920304 
123 7 1 0.894253 0.559503 0.500408 -0.00369452 -0.00107379 0.00238004 
124 9 1 0.843512 0.546599 0.5015 -0.00981824 0.00892955 -0.00363456 
125 9 1 0.870684 0.518787 0.520402 -0.00559664 -0.0159007 0.00308287 
127 9 1 0.914681 0.555727 0.516898 -0.00603777 -0.00533251 0.00463696 
ITEM: TIMESTEP
200
ITEM: NUMBER OF ATOMS
140
ITEM: BOX BOUNDS pp pp pp
-21.3295 19.8467
-21.3295 19.8467
-21.3295 19.8467
ITEM: ATOMS id type mol xs ys zs vx vy vz 
50 7 1 0.439473 0.466132 0.49325 0.00839555 -0.000826598 -0.0064623 
52 9 1 0.459149 0.453943 0.476335 0.0109857 -0.0378741 -0.039047 
53 9 1 0.416384 0.482083 0.479432 -0.0341016 0.0278754 0.0428665 
54 7 1 0.400694 0.414856 0.493568 -0.00129655 -4.75533e-05 0.00636274 
64 9 1 0.409376 0.390867 0.481087 0.00222547 -0.00346721 0.0500773 
65 9 1 0.393611 0.433217 0.470282 -0.0134488 -0.0250532 -0.0194939 
66 7 1 0.340407 0.39247 0.498841 0.0159939 0.00352163 0.00549899 
70 9 1 0.344249 0.389211 0.471147 -0.000359271 -0.0228492 0.00889799 
71 9 1 0.311236 0.40671 0.499185 -0.0380974 -0.0182542 0.0442515 
73 9 1 0.321695 0.342538 0.497683 -0.0426513 0.00539925 0.00285544 
87 6 1 0.254573 0.510718 0.478698 0.03661 -0.0177548 -0.0144582 
88 6 1 0.310063 0.485288 0.506284 -0.0300334 0.0189082 0.0405447 
103 7 1 0.0759053 0.477025 0.493269 0.00755347 0.00180459 0.00525588 
106 7 1 0.0398398 0.472899 0.478913 0.00961941 -0.0101542 0.00287419 
107 9 1 0.0809626 0.460187 0.514838 -0.0315808 0.0347631 -0.000393458 
108 9 1 0.0945343 0.462557 0.47475 -0.0115765 0.0438408 -0.00354886 
135 10 1 0.0371151 0.440309 0.459283 0.0047373 0.00544176 0.000149866 
136 9 1 0.0268971 0.498 0.473394 -0.018233 0.00454679 0.00948049 
137 9 1 0.0252542 0.464627 0.504924 -0.00805103 0.0111407 0.0286576 
138 9 1 0.0435366 0.415175 0.470024 -0.0144914 -0.0240166 0.0238148 
139 9 1 0.0573061 0.444058 0.438182 0.0139196 0.032102 0.0109499 
140 9 1 0.0126542 0.438093 0.44467 0.064725 0.0113258 0.0117233 
6 4 1 0.502126 0.48348 0.491851 -0.000955437 -0.0175258 0.00344263 
85 3 1 0.267043 0.516029 0.505731 -0.0131847 -0.0180584 -0.00815045 
97 7 1 0.123474 0.515063 0.482187 -0.00514444 0.000374569 -0.00898529 
100 7 1 0.0863225 0.514766 0.495437 -0.00683066 -0.000823923 0.00258296 
102 9 1 0.126922 0.544351 0.47499 -0.0315364 -0.0173618 0.0084423 
104 9 1 0.0727431 0.532804 0.477004 -0.0150037 -0.0181918 -0.014744 
14 6 1 0.561058 0.529651 0.475642 0.0356477 -0.0477016 0.043792 
126 7 1 0.889563 0.554107 0.461206 0.00644944 0.000621345 -0.00159477 
128 9 1 0.903541 0.58781 0.506719 0.00932353 -0.00121488 0.00270873 
129 10 1 0.920333 0.536569 0.445509 -0.00112721 -0.00131901 -0.0048563 
130 9 1 0.886313 0.579226 0.448488 -0.0228371 -0.0378323 0.0124133 
131 9 1 0.864605 0.540499 0.458421 0.0200059 -0.0116502 0.00227697 
132 9 1 0.941927 0.53164 0.458961 -0.0228077 -0.0163755 -0.0142458 
133 9 1 0.925503 0.541643 0.418819 -0.0132432 0.00422627 0.00526572 
134 9 1 0.9101 0.506462 0.445442 -0.0323501 0.0140942 -0.00199627 
51 8 1 0.423323 0.437251 0.514874 -0.00284707 0.00406283 -0.00110232 
55 7 1 0.453405 0.414596 0.530133 -0.0100876 -0.00412928 -0.00708756 
56 9 1 0.413265 0.450919 0.539615 -0.0376487 0.0208606 -0.00717349 
57 10 1 0.444581 0.417715 0.568537 0.0048349 0.00479003 0.00931211 
58 9 1 0.480478 0.415054 0.519466 0.00210202 -0.0144529 0.00984456 
59 9 1 0.444349 0.386275 0.516628 -0.0314046 0.00394837 0.00779863 
60 9 1 0.463596 0.406781 0.583674 0.00912008 -0.0216385 1.40509e-05 
61 9 1 0.417782 0.414595 0.578406 0.00951079 0.00232953 0.00679626 
62 9 1 0.450306 0.447039 0.574413 -0.0171999 -0.00738334 -0.033715 
63 7 1 0.366927 0.41664 0.513507 -0.00658514 -0.00495084 -0.00342604 
67 9 1 0.356851 0.444015 0.506203 -0.0295444 0.0130166 0.0151012 
68 9 1 0.372478 0.418493 0.542057 0.0381844 0.00821031 0.0463524 
69 10 1 0.338114 0.358961 0.517085 0.00502617 0.00608949 0.00620889 
72 9 1 0.360482 0.341448 0.518215 0.009474 -0.0132794 -0.00523669 
74 9 1 0.322509 0.357549 0.542555 0.00334184 -0.0162872 -0.0214431 
101 9 1 0.132272 0.502936 0.458007 -0.0412525 0.0190072 -0.0288689 
105 9 1 0.0859637 0.530683 0.519585 0.0222437 0.00871466 0.00759743 
1 1 2 0.454352 0.488643 0.523361 -0.0206841 5.94767e-05 0.00265 
2 2 2 0.491212 0.489995 0.525498 -0.00813476 0.015754 0.00305313 
3 3 2 0.493158 0.532545 0.522 -0.00603495 -0.0210708 -0.00855839 
4 3 2 0.466391 0.541452 0.546787 0.016182 0.0043376 -0.00191028 
5 3 2 0.436149 0.521834 0.524258 0.00473857 0.00990381 0.00373866 
7 2 2 0.46852 0.584616 0.542926 0.0179914 -0.00728865 0.00995465 
24 4 1 0.461434 0.590106 0.581082 -0.00902484 0.00866678 -0.00621175 
32 10 1 0.485583 0.672845 0.565167 -0.000981559 0.0113458 0.00473033 
35 9 1 0.492304 0.68872 0.584447 -0.0331108 0.0291716 0.0163341 
36 9 1 0.461175 0.654886 0.568614 -0.0381365 -0.0125239 -0.00311795 
75 3 1 0.412125 0.517526 0.55646 0.00396964 -0.00571366 0.0196328 
76 3 1 0.398303 0.554198 0.555472 0.00252284 -0.013697 -0.0052033 
77 3 1 0.36276 0.554998 0.559814 0.00606397 0.00905172 -0.00878748 
78 6 1 0.399593 0.563516 0.52568 0.0195867 -0.00293375 -0.0204431 
79 3 1 0.347888 0.551178 0.524512 0.0119466 0.000242387 0.0160469 
80 6 1 0.353635 0.533343 0.581387 -0.0107688 -0.0343393 -0.0637896 
81 5 1 0.373443 0.509984 0.519356 -0.0128624 -0.0073224 0.000448542 
82 3 1 0.315271 0.528774 0.538924 -0.0190846 0.00176367 -0.00904601 
83 5 1 0.288569 0.569974 0.531503 0.00634705 0.0152679 0.0027235 
84 3 1 0.259636 0.554806 0.505274 -0.0164028 -0.0111086 -0.000950279 
86 3 1 0.305198 0.514159 0.503673 -0.000764582 0.0198271 -0.00156874 
89 3 1 0.227772 0.563372 0.527636 0.00779397 -0.0107125 0.00100552 
90 3 1 0.220231 0.536407 0.553205 -0.000366929 -0.00416135 0.0073597 
91 3 1 0.185766 0.525022 0.554755 0.0128646 -0.00416016 -0.008145 
92 6 1 0.235855 0.510537 0.548852 -0.00791015 0.00770521 -0.0847837 
93 3 1 0.166724 0.538881 0.525107 0.000920354 -0.0116697 0.0164072 
94 6 1 0.17316 0.527352 0.581484 0.00981468 -0.0031142 -0.00658905 
95 5 1 0.199829 0.534251 0.493551 0.00146433 0.00681724 -0.00670858 
96 7 1 0.146378 0.50298 0.511395 0.0106755 0.00327789 -0.0103982 
98 9 1 0.126285 0.501833 0.534919 0.00514462 0.00962293 -0.0022897 
99 9 1 0.152649 0.473054 0.514622 0.00988104 -0.00968724 -0.0297847 
8 3 2 0.523534 0.55065 0.542864 0.00114165 -0.00557243 0.0120518 
9 1 2 0.504206 0.587799 0.539966 -0.00294086 0.000709403 -0.00979853 
10 3 1 0.551377 0.561567 0.516161 0.0170742 0.0111203 0.00800079 
11 3 1 0.565189 0.525627 0.506257 0.00277287 0.00915388 -0.0100946 
12 5 1 0.584302 0.556722 0.558996 -0.0156701 0.00396086 -0.000934649 
13 3 1 0.602859 0.534735 0.505278 -0.0021633 -0.00131108 7.63479e-05 
15 3 1 0.6152 0.530294 0.541672 0.0131303 -0.0129461 0.00227639 
16 6 1 0.608213 0.558085 0.490397 0.0145306 -0.0177799 0.0160621 
17 5 1 0.765169 0.566609 0.57166 0.000791909 0.00363663 -0.00121157 
18 3 1 0.739567 0.52336 0.563947 -0.0182156 0.00231108 -0.00382608 
19 3 1 0.796279 0.560816 0.540222 0.0120557 -0.0128051 -0.00754682 
20 3 1 0.752369 0.518965 0.530768 -0.0193846 -0.0219904 -0.00320745 
21 3 1 0.788842 0.522745 0.534477 0.0131107 0.0149067 0.00394684 
22 6 1 0.746288 0.493512 0.518141 0.0181487 0.0216681 -0.0271899 
23 6 1 0.804285 0.514366 0.509923 0.0313837 -0.0407648 -0.0173017 
25 7 1 0.521779 0.606597 0.572124 -0.0136899 -0.0062362 -0.0170564 
26 8 1 0.536401 0.638662 0.551654 -0.00909725 -0.0063292 -0.00210469 
27 9 1 0.544015 0.601966 0.591296 0.0330149 -0.00883716 0.00953293 
28 9 1 0.503274 0.622021 0.592424 0.0277622 -0.0113339 -0.00508811 
29 7 1 0.510905 0.664108 0.536586 0.00491305 -0.0018835 0.00356059 
30 7 1 0.558327 0.661815 0.575996 -0.00143427 0.00290681 -0.00899424 
31 9 1 0.556324 0.624338 0.534462 0.0184771 0.0123008 -0.00310553 
33 9 1 0.497126 0.651487 0.515723 0.00126861 0.0258709 -0.0081003 
34 9 1 0.523079 0.688256 0.526981 0.000297194 -0.0108635 0.0491954 
37 9 1 0.469966 0.694956 0.548597 -0.00356545 -0.00241393 -0.0127658 
38 7 1 0.58069 0.682163 0.548563 -0.000633717 -0.00293952 0.00249143 
39 9 1 0.579472 0.64802 0.588598 0.0150515 0.0067854 0.0260254 
40 9 1 0.543972 0.674844 0.596968 -0.00985646 -0.00123804 -0.023445 
41 7 1 0.587717 0.716499 0.561343 0.0136502 -0.00539655 0.00832354 
42 9 1 0.570419 0.679115 0.521673 0.0439771 -0.00115472 -0.0116804 
43 9 1 0.60663 0.664579 0.546487 0.00732098 0.0506222 -0.00324244 
44 10 1 0.596153 0.741262 0.532729 0.000878272 -0.00432976 -0.00464431 
45 9 1 0.607999 0.716574 0.580472 0.0313186 0.00888773 0.0231426 
46 9 1 0.560781 0.727549 0.571364 -0.0439501 0.0136171 0.0355126 
47 9 1 0.577204 0.759715 0.525914 0.0154194 -0.00217775 -0.00559607 
48 9 1 0.611607 0.730012 0.511343 0.00515117 -0.0213716 0.0145559 
49 9 1 0.614683 0.761945 0.545343 -0.000317698 0.0166583 0.00751932 
109 3 1 0.649405 0.553684 0.542801 -0.00616065 -0.00741517 -0.0098412 
110 3 1 0.654491 0.555347 0.582281 0.00539496 3.36671e-05 -0.0150027 
111 3 1 0.692277 0.551757 0.589354 0.0293081 -0.00216769 0.0108493 
112 6 1 0.642704 0.528568 0.591023 -0.00231862 0.0124202 0.026218 
113 3 1 0.707799 0.550943 0.555455 -0.00384073 -0.00805672 0.0183471 
114 6 1 0.697595 0.574858 0.604905 0.0307754 -0.0253137 -0.0118798 
115 5 1 0.677824 0.50877 0.546813 -0.00672748 0.0024833 0.000475175 
116 7 1 0.825567 0.554237 0.568905 -0.00262978 0.0208501 0.00749455 
117 7 1 0.861141 0.562161 0.553104 0.00467088 0.0115186 0.00444132 
118 9 1 0.827161 0.533276 0.588842 -0.00879155 -0.0100897 0.032278 
119 9 1 0.823619 0.577707 0.590086 0.00671971 -0.00907274 -0.0162302 
120 7 1 0.865011 0.549663 0.517806 0.00755404 0.00548553 -0.00641345 
121 9 1 0.879909 0.55462 0.573449 0.0276876 -0.000848153 -0.0372069 
122 9 1 0.865724 0.593524 0.554856 0.00987278 0.0149307 0.0313494 
123 7 1 0.898127 0.559598 0.499841 0.00113932 -0.00165681 -0.00258873 
124 9 1 0.844889 0.566017 0.502552 0.00785191 0.00252833 0.000115998 
125 9 1 0.862285 0.521309 0.514683 0.0473359 0.0014213 -0.00884175 
127 9 1 0.918427 0.544532 0.51065 0.00727726 0.0206628 0.0128355 
ITEM: TIMESTEP
400
ITEM: NUMBER OF ATOMS
140
ITEM: BOX BOUNDS pp pp pp
-21.5086 20.0259
-21.5086 20.0259
-21.5086 20.0259
ITEM: ATOMS id type mol xs ys zs vx vy vz 
50 7 1 0.435799 0.46944 0.499513 0.000118997 -0.00404782 0.00529561 
52 9 1 0.452597 0.454472 0.48156 0.0165476 0.0204008 -0.0154475 
53 9 1 0.415004 0.485896 0.485979 -0.0237116 0.00127111 0.00484911 
54 7 1 0.38523 0.426947 0.500254 0.00299177 -0.00874753 0.0024512 
64 9 1 0.394694 0.406973 0.48085 0.016519 -0.0049621 -0.0229328 
65 9 1 0.369014 0.445994 0.482641 0.0133701 0.0130911 -0.0236889 
66 7 1 0.342852 0.381597 0.51916 -0.000190688 -0.00119909 -0.00676327 
70 9 1 0.345074 0.378107 0.490532 -0.0228052 0.00994608 -0.0113481 
71 9 1 0.313441 0.387148 0.525748 -0.0276143 -0.0367563 0.00763553 
73 9 1 0.364929 0.328202 0.523708 0.0375863 0.0269714 0.0106306 
87 6 1 0.263125 0.535264 0.45984 -0.0117265 -0.000825337 -0.0180121 
88 6 1 0.315548 0.512112 0.476187 -0.0119825 -0.0154669 0.0273615 
103 7 1 0.0785371 0.475072 0.507395 -0.00596026 -0.00851695 0.00356797 
106 7 1 0.0511326 0.482511 0.480012 0.000491435 0.00143694 0.000352905 
107 9 1 0.0718135 0.452777 0.524469 -0.00792493 0.0399227 0.00955121 
108 9 1 0.100799 0.45938 0.49296 0.017027 -0.00957842 0.0184107 
135 10 1 0.0621304 0.461453 0.448078 -0.00255755 0.00930989 -0.0041036 
136 9 1 0.0462634 0.507693 0.469947 -0.00392938 0.0104765 0.00545667 
137 9 1 0.0243926 0.470866 0.486992 -0.00590445 0.0234933 -0.00738183 
138 9 1 0.0758422 0.43851 0.451986 0.0237606 0.0374164 0.00127272 
139 9 1 0.0700027 0.474281 0.424924 -0.00517365 0.0124057 -0.00613552 
140 9 1 0.0345009 0.450301 0.439454 -0.0087308 0.0235875 0.010737 
6 4 1 0.500653 0.475535 0.506863 0.00248654 0.00316771 0.00206566 
85 3 1 0.271482 0.535968 0.486941 -0.00325467 0.00960052 -0.00356679 
97 7 1 0.117736 0.52342 0.498773 -0.00741079 0.00194112 0.000697309 
100 7 1 0.0905975 0.508364 0.520808 -0.005729 -0.00508026 2.61943e-05 
102 9 1 0.124874 0.551392 0.50697 0.00334054 0.00798659 -0.00576067 
104 9 1 0.0701926 0.526186 0.530236 -0.00353808 0.010481 0.0152981 
14 6 1 0.55755 0.50947 0.488241 -0.0178753 0.0728944 -0.00373028 
126 7 1 0.902822 0.551085 0.465256 0.00339665 -0.00537146 -0.00455744 
128 9 1 0.885489 0.591566 0.494478 -0.00273245 -0.0115522 -0.0189891 
129 10 1 0.938323 0.535699 0.472655 0.00213528 0.00263259 0.00978682 
130 9 1 0.900572 0.571232 0.44549 -0.0132174 0.00173497 -0.0187315 
131 9 1 0.887452 0.530158 0.456015 -0.00661128 -0.0212814 0.00282729 
132 9 1 0.939097 0.510735 0.48359 0.0176775 0.0228419 0.0146017 
133 9 1 0.962629 0.550497 0.476125 0.0227057 -0.00727106 0.00387023 
134 9 1 0.947309 0.523804 0.444806 -0.0236901 0.041863 0.0219431 
51 8 1 0.413966 0.442969 0.519515 0.0049276 0.00474654 0.000973984 
55 7 1 0.439391 0.411411 0.528048 -0.0021664 0.00504258 -0.00021621 
56 9 1 0.404737 0.453555 0.545423 -0.00013716 0.0379565 0.0157529 
57 10 1 0.445183 0.410265 0.566359 0.011078 0.00620454 -0.00417872 
58 9 1 0.46384 0.411325 0.513092 -0.00704706 -0.022757 0.0103482 
59 9 1 0.422627 0.385662 0.523523 0.00424094 0.0138793 -0.0268109 
60 9 1 0.451755 0.390292 0.58307 -0.0269993 0.0183176 -0.00778657 
61 9 1 0.431428 0.430024 0.581371 0.0331963 -0.0157206 -0.00853781 
62 9 1 0.473527 0.425854 0.569492 0.00279754 -0.0112234 0.00888594 
63 7 1 0.360545 0.415217 0.527377 0.00198165 0.00443821 -0.00607151 
67 9 1 0.340235 0.436865 0.530274 -0.00219489 0.0225555 -0.0197344 
68 9 1 0.371627 0.413185 0.556219 -0.00793185 0.00613554 -0.0167869 
69 10 1 0.360297 0.353238 0.538425 0.00266849 0.00862007 0.00790047 
72 9 1 0.381134 0.36028 0.554579 -0.0110949 -0.0153646 0.000737212 
74 9 1 0.339167 0.345026 0.559792 0.0222503 0.00726445 -8.56123e-05 
101 9 1 0.106088 0.529313 0.473185 0.0381391 0.00525268 0.00845996 
105 9 1 0.105043 0.50093 0.547205 0.0153295 -0.0285697 0.00389515 
1 1 2 0.450629 0.490391 0.528944 -0.00119354 -0.00258637 0.00607795 
2 2 2 0.486307 0.490909 0.535297 -0.00621858 0.0086602 0.00010256 
3 3 2 0.492363 0.530978 0.528407 -0.00517726 -0.0054818 3.70114e-05 
4 3 2 0.462294 0.542693 0.551822 0.00474869 0.00233535 0.00365598 
5 3 2 0.434331 0.52514 0.528887 -0.00638539 0.00173888 -0.0030966 
7 2 2 0.465251 0.584125 0.53693 0.00663524 -0.00911615 0.00463357 
24 4 1 0.452108 0.598463 0.566804 -0.00229887 -0.00654121 -0.000699597 
32 10 1 0.481091 0.672692 0.542295 0.00437911 0.00250019 -0.0125789 
35 9 1 0.481958 0.699931 0.543404 0.00119597 -0.00819228 -0.0123398 
36 9 1 0.467512 0.660652 0.562736 0.0109895 -0.0115585 -0.0217088 
75 3 1 0.406541 0.519221 0.556601 -0.00704219 0.0074965 0.00113229 
76 3 1 0.395122 0.553465 0.563621 0.000713383 -0.0129368 -0.0131152 
77 3 1 0.35712 0.552317 0.56578 0.00695505 0.00896497 0.00145704 
78 6 1 0.401547 0.569181 0.538341 -0.015458 -0.0168882 0.0154161 
79 3 1 0.346575 0.553657 0.529937 0.00127685 -0.00233933 0.00796366 
80 6 1 0.351058 0.524264 0.57358 0.0153407 -0.00403523 -0.0195288 
81 5 1 0.373719 0.517676 0.516271 0.0007259 -0.00119699 -0.00349265 
82 3 1 0.313167 0.534922 0.526785 -0.000207377 0.00217025 -0.00284298 
83 5 1 0.289144 0.577714 0.530731 -0.00200086 -0.0012835 -0.00135055 
84 3 1 0.254988 0.564656 0.502225 -0.00404348 -0.00903902 -0.00563909 
86 3 1 0.308294 0.538263 0.486139 -0.00396947 0.00668122 0.0100376 
89 3 1 0.230622 0.550787 0.531482 -0.00272365 0.00452133 -0.000592464 
90 3 1 0.233069 0.515302 0.533425 -0.0011456 0.000977924 -0.00796152 
91 3 1 0.199134 0.498701 0.53081 -0.000870571 0.0025801 -0.00541457 
92 6 1 0.240481 0.50657 0.559991 0.0139099 -0.00295547 0.00136947 
93 3 1 0.172862 0.524186 0.529007 -0.000685979 0.000448448 0.00728765 
94 6 1 0.195178 0.484599 0.557184 -0.0221506 0.018728 -0.00581489 
95 5 1 0.196657 0.543872 0.48975 0.000706589 0.00330548 0.00343236 
96 7 1 0.149766 0.502457 0.498219 0.00610743 -0.0132849 -0.00333061 
98 9 1 0.146211 0.474909 0.508083 0.0382791 -0.0225388 -0.00640794 
99 9 1 0.159531 0.500527 0.469996 0.00833296 0.0165729 -0.00663795 
8 3 2 0.520473 0.549853 0.545613 -0.0132901 -0.00958249 0.00323364 
9 1 2 0.502654 0.586209 0.542104 0.0107295 0.00153731 -0.00275767 
10 3 1 0.546252 0.553931 0.515706 -0.000106341 -0.00274003 0.00353463 
11 3 1 0.56405 0.522138 0.514854 0.00493156 0.00405565 0.00297705 
12 5 1 0.582753 0.566103 0.553551 -0.00125096 1.628e-05 -0.00463087 
13 3 1 0.600574 0.529218 0.506753 -0.00262576 0.00460878 -0.00216198 
15 3 1 0.611688 0.532953 0.545189 -0.0013082 0.0102287 -0.00436459 
16 6 1 0.600692 0.556228 0.496356 -0.000135802 0.00467172 0.00369083 
17 5 1 0.767654 0.554142 0.575326 0.0021086 0.00199395 0.00016592 
18 3 1 0.733882 0.518241 0.561868 0.00524031 0.00390167 -0.00388954 
19 3 1 0.791929 0.549564 0.543112 -0.00204871 -0.00451539 0.00451023 
20 3 1 0.749745 0.509385 0.532041 -0.00839835 -0.00201614 0.00514217 
21 3 1 0.78739 0.510667 0.538803 0.00393376 0.00429878 0.000843748 
22 6 1 0.747101 0.479978 0.53389 0.0118482 0.00653665 -0.0115019 
23 6 1 0.796026 0.508744 0.510768 -0.0171745 0.00228931 0.0135857 
25 7 1 0.515553 0.612043 0.567514 -0.000333598 0.00247814 0.00174454 
26 8 1 0.532528 0.637556 0.544135 -0.00392827 0.00209611 0.00392951 
27 9 1 0.538432 0.600686 0.58166 0.0109342 -0.00454414 -0.0242688 
28 9 1 0.500429 0.625741 0.590104 0.0045619 0.0155539 0.00491153 
29 7 1 0.509766 0.65829 0.522128 -7.59445e-05 -0.00825694 -0.00676532 
30 7 1 0.555298 0.662382 0.56753 0.00268638 -0.0052236 0.00347672 
31 9 1 0.551922 0.622049 0.526346 0.0179825 0.00398106 -0.00669051 
33 9 1 0.496475 0.643641 0.500892 0.0156316 -0.00854958 -0.0181466 
34 9 1 0.524748 0.681996 0.508837 -0.0305168 -0.0452016 -0.0334134 
37 9 1 0.45868 0.671493 0.521967 -0.00288877 -0.0027879 -0.0176366 
38 7 1 0.584223 0.676415 0.546026 -0.00528391 0.00174016 -0.000668444 
39 9 1 0.561627 0.656552 0.594357 0.026483 -0.00177586 -0.0244595 
40 9 1 0.538975 0.687524 0.573425 0.0232427 0.00241315 -0.00794981 
41 7 1 0.592178 0.711449 0.560553 -0.00446513 -0.00384121 0.00847591 
42 9 1 0.576852 0.674136 0.518611 0.00587976 -0.00271103 0.022597 
43 9 1 0.608299 0.659523 0.549524 0.00936056 0.0191971 0.0268669 
44 10 1 0.624477 0.723239 0.541588 0.00675993 -0.00446536 -0.00128427 
45 9 1 0.591155 0.714792 0.58841 -0.0180651 0.00139472 -0.028765 
46 9 1 0.568118 0.730054 0.554431 0.000473855 0.0182446 -0.0298299 
47 9 1 0.63083 0.707344 0.519934 -0.00314763 0.0218974 0.0198357 
48 9 1 0.647947 0.717016 0.557735 -0.0187112 0.00101481 0.0295472 
49 9 1 0.630211 0.752722 0.540893 -0.00956051 -0.0111998 -0.00115368 
109 3 1 0.642987 0.556027 0.542898 -0.00408465 -0.00822956 0.00974964 
110 3 1 0.654516 0.561669 0.578061 -0.000391091 -0.000464981 0.00642343 
111 3 1 0.691539 0.558916 0.580198 -0.000716094 -0.00104432 -0.000965591 
112 6 1 0.647523 0.536254 0.590419 0.0212265 0.0094793 -0.0110277 
113 3 1 0.705912 0.549893 0.547906 -0.000360724 -0.00642763 0.0028205 
114 6 1 0.698914 0.587533 0.580637 -0.0174132 -0.0290557 -0.0088984 
115 5 1 0.672441 0.512259 0.542938 0.00573359 -0.00194021 0.00145695 
116 7 1 0.829491 0.547166 0.566964 -0.00381907 -0.00939749 -0.00811352 
117 7 1 0.852401 0.568374 0.544313 0.00122423 9.67758e-05 -0.00246965 
118 9 1 0.83964 0.521422 0.56979 0.00295165 0.00840978 0.00136276 
119 9 1 0.83305 0.560515 0.593217 0.0200549 -0.0320958 -0.0114725 
120 7 1 0.860186 0.547157 0.513709 -0.00532655 0.00526468 0.00674268 
121 9 1 0.873264 0.580571 0.559758 -0.0203444 -0.00952033 0.0229183 
122 9 1 0.832509 0.591109 0.5343 -0.00341509 0.00955264 -0.0266045 
123 7 1 0.892941 0.562546 0.500132 0.000250597 -0.00697104 0.0071707 
124 9 1 0.838885 0.54654 0.492913 -0.00493215 -0.00420945 0.00774054 
125 9 1 0.862484 0.517591 0.520455 0.00233375 0.0126831 0.0135259 
127 9 1 0.913507 0.57 0.519362 0.000871712 -0.00512054 -0.0261065 
ITEM: TIMESTEP
600
ITEM: NUMBER OF ATOMS
140
ITEM: BOX BOUNDS pp pp pp
-21.2938 19.8111
-21.2938 19.8111
-21.2938 19.8111
ITEM: ATOMS id type mol xs ys zs vx vy vz 
50 7 1 0.442574 0.463568 0.504085 -0.00259847 0.000721549 0.00211769 
52 9 1 0.461551 0.454355 0.485366 0.0124669 0.00288565 0.0043955 
53 9 1 0.424406 0.482142 0.487702 0.0218351 0.00207256 -0.00819375 
54 7 1 0.39626 0.420658 0.496932 0.00372753 -0.00588033 0.00214977 
64 9 1 0.409219 0.397473 0.486335 0.0101413 0.0127091 0.0139916 
65 9 1 0.394267 0.439675 0.473302 0.00560881 -0.00701801 0.0175119 
66 7 1 0.354858 0.377627 0.518134 0.00660532 0.00197484 0.00520611 
70 9 1 0.369002 0.361444 0.49907 0.00995688 -0.0270814 0.01746 